HEADER,  data1.mol  read w/ mol2lmp > atom_typing v1.11 / 14 April 2025 w/PCFF-IFF atom-types > all2lmp: v1.22 / 14 April 2025  Class: 2

16 atoms
16 bonds
23 angles
32 dihedrals
7 impropers

6 atom types
7 bond types
9 angle types
13 dihedral types
4 improper types

-3.281293750 3.727806250 xlo xhi
-2.628900000 2.433300000 ylo yhi
-2.684900000 2.474500000 zlo zhi

Masses

1   12.01115000  #  c=2  
2   12.01115000  #  cp   
3    1.00797000  #  hc   
4    1.00797000  #  ho   
5   15.99940000  #  o_1  
6   15.99940000  #  oh   

Pair Coeffs  # lj/class2/coul/long

1         0.06400000      4.01000000 #  c=2  
2         0.06400000      4.01000000 #  cp   
3         0.02000000      2.99500000 #  hc   
4         0.01300000      1.09800000 #  ho   
5         0.26700000      3.30000000 #  o_1  
6         0.24000000      3.53500000 #  oh   

Bond Coeffs  # class2

1         1.50000000    322.80000000      0.00000000      0.00000000 #  c=2         cp   
2         1.35500000    312.91160000      0.00000000      0.00000000 #  c=2        o_1   
3         1.36800000    355.19880000      0.00000000      0.00000000 #  c=2         oh   
4         1.41700000    470.83610000   -627.61790000   1327.63450000 #  cp          cp   
5         1.09820000    372.82510000   -803.45260000    894.31730000 #  cp          hc   
6         1.37680000    428.87980000   -738.23510000   1114.96550000 #  cp          oh   
7         0.96500000    532.50620000  -1282.90500000   2004.76580000 #  ho          oh   

Angle Coeffs  # class2

1       120.00000000     80.00000000      0.00000000      0.00000000 #  c=2        cp         cp   
2       109.00000000     58.50000000      0.00000000      0.00000000 #  c=2        oh         ho   
3       120.00000000     68.00000000      0.00000000      0.00000000 #  cp        c=2        o_1   
4       120.00000000     68.00000000      0.00000000      0.00000000 #  cp        c=2         oh   
5       118.90000000     61.02260000    -34.99310000      0.00000000 #  cp         cp         cp   
6       117.94000000     35.15580000    -12.46820000      0.00000000 #  cp         cp         hc   
7       123.42000000     73.67810000    -21.67870000      0.00000000 #  cp         cp         oh   
8       108.19000000     53.12500000     -8.50160000      0.00000000 #  cp         oh         ho   
9       120.00000000     68.00000000      0.00000000      0.00000000 #  o_1       c=2         oh   

Dihedral Coeffs  # class2

1         0.00000000      0.00000000      0.90000000      0.00000000      0.00000000      0.00000000 #  cp        c=2        oh         ho   
2         0.00000000      0.00000000      0.50000000      0.00000000      0.00000000      0.00000000 #  o_1       c=2        cp         cp   
3         0.00000000      0.00000000      0.50000000      0.00000000      0.00000000      0.00000000 #  oh        c=2        cp         cp   
4         8.36670000      0.00000000      1.19320000      0.00000000      0.00000000      0.00000000 #  cp         cp        cp         cp   
5         0.00000000      0.00000000      3.00000000      0.00000000      0.00000000      0.00000000 #  c=2        cp        cp         cp   
6         0.00000000      0.00000000      1.87690000      0.00000000      0.00000000      0.00000000 #  hc         cp        cp         hc   
7         0.00000000      0.00000000      3.96610000      0.00000000      0.00000000      0.00000000 #  cp         cp        cp         hc   
8         0.00000000      0.00000000      3.00000000      0.00000000      0.00000000      0.00000000 #  c=2        cp        cp         hc   
9         0.00000000      0.00000000      4.84980000      0.00000000      0.00000000      0.00000000 #  cp         cp        cp         oh   
10        0.00000000      0.00000000      1.72340000      0.00000000      0.00000000      0.00000000 #  hc         cp        cp         oh   
11        0.00000000      0.00000000      3.00000000      0.00000000      0.00000000      0.00000000 #  c=2        cp        cp         oh   
12       -0.69000000      0.00000000      0.50970000      0.00000000      0.00950000      0.00000000 #  cp         cp        oh         ho   
13        0.00000000      0.00000000      0.90000000      0.00000000      0.00000000      0.00000000 #  o_1       c=2        oh         ho   

Improper Coeffs  # class2

1        10.00000000      0.00000000 #  c=2        cp        cp        cp      nb==3   
2         2.05680000      0.00000000 #  cp        c=2       o_1        oh      nb==3   
3         4.89120000      0.00000000 #  cp         cp        cp        hc      nb==3   
4        13.04210000      0.00000000 #  cp         cp        cp        oh      nb==3   

BondBond Coeffs  # class2

1         0.00000000      1.50000000      1.41700000 #  c=2        cp         cp   
2         0.00000000      1.36800000      0.96500000 #  c=2        oh         ho   
3         0.00000000      1.50000000      1.35500000 #  cp        c=2        o_1   
4         0.00000000      1.50000000      1.36800000 #  cp        c=2         oh   
5        68.28560000      1.41700000      1.41700000 #  cp         cp         cp   
6         1.07950000      1.41700000      1.09820000 #  cp         cp         hc   
7        48.47540000      1.41700000      1.37680000 #  cp         cp         oh   
8        20.65770000      1.37680000      0.96500000 #  cp         oh         ho   
9         0.00000000      1.35500000      1.36800000 #  o_1       c=2         oh   

BondAngle Coeffs  # class2

1         0.00000000      0.00000000      1.50000000      1.41700000 #  c=2        cp         cp   
2         0.00000000      0.00000000      1.36800000      0.96500000 #  c=2        oh         ho   
3         0.00000000      0.00000000      1.50000000      1.35500000 #  cp        c=2        o_1   
4         0.00000000      0.00000000      1.50000000      1.36800000 #  cp        c=2         oh   
5        28.87080000     28.87080000      1.41700000      1.41700000 #  cp         cp         cp   
6        20.00330000     24.21830000      1.41700000      1.09820000 #  cp         cp         hc   
7        58.47900000    107.68060000      1.41700000      1.37680000 #  cp         cp         oh   
8        53.86140000     23.92240000      1.37680000      0.96500000 #  cp         oh         ho   
9         0.00000000      0.00000000      1.35500000      1.36800000 #  o_1       c=2         oh   

AngleAngleTorsion Coeffs  # class2

1         0.00000000    120.00000000    109.00000000 #  cp        c=2        oh         ho   
2         0.00000000    120.00000000    120.00000000 #  o_1       c=2        cp         cp   
3         0.00000000    120.00000000    120.00000000 #  oh        c=2        cp         cp   
4         0.00000000    118.90000000    118.90000000 #  cp         cp        cp         cp   
5         0.00000000    120.00000000    118.90000000 #  c=2        cp        cp         cp   
6         0.35980000    117.94000000    117.94000000 #  hc         cp        cp         hc   
7        -4.81410000    118.90000000    117.94000000 #  cp         cp        cp         hc   
8         0.00000000    120.00000000    117.94000000 #  c=2        cp        cp         hc   
9       -21.02470000    118.90000000    123.42000000 #  cp         cp        cp         oh   
10        4.22960000    117.94000000    123.42000000 #  hc         cp        cp         oh   
11        0.00000000    120.00000000    123.42000000 #  c=2        cp        cp         oh   
12       -4.60720000    123.42000000    108.19000000 #  cp         cp        oh         ho   
13        0.00000000    120.00000000    109.00000000 #  o_1       c=2        oh         ho   

EndBondTorsion Coeffs  # class2

1         0.00000000      0.00000000      0.00000000      0.00000000      0.00000000      0.00000000      1.50000000      0.96500000 #  cp        c=2        oh         ho   
2         0.00000000      0.00000000      0.00000000      0.00000000      0.00000000      0.00000000      1.35500000      1.41700000 #  o_1       c=2        cp         cp   
3         0.00000000      0.00000000      0.00000000      0.00000000      0.00000000      0.00000000      1.36800000      1.41700000 #  oh        c=2        cp         cp   
4        -0.11850000      6.32040000      0.00000000     -0.11850000      6.32040000      0.00000000      1.41700000      1.41700000 #  cp         cp        cp         cp   
5         0.00000000      0.00000000      0.00000000      0.00000000      0.00000000      0.00000000      1.50000000      1.41700000 #  c=2        cp        cp         cp   
6         0.00000000     -0.68900000      0.00000000      0.00000000     -0.68900000      0.00000000      1.09820000      1.09820000 #  hc         cp        cp         hc   
7         0.00000000     -6.89580000      0.00000000      0.00000000     -0.46690000      0.00000000      1.41700000      1.09820000 #  cp         cp        cp         hc   
8         0.00000000      0.00000000      0.00000000      0.00000000      0.00000000      0.00000000      1.50000000      1.09820000 #  c=2        cp        cp         hc   
9         0.00000000      0.26550000      0.00000000      0.00000000      4.89050000      0.00000000      1.41700000      1.37680000 #  cp         cp        cp         oh   
10        0.00000000     -1.58670000      0.00000000      0.00000000      4.26410000      0.00000000      1.09820000      1.37680000 #  hc         cp        cp         oh   
11        0.00000000      0.00000000      0.00000000      0.00000000      0.00000000      0.00000000      1.50000000      1.37680000 #  c=2        cp        cp         oh   
12        0.90000000     -1.34560000      1.19000000      3.41320000      0.58730000     -0.13230000      1.41700000      0.96500000 #  cp         cp        oh         ho   
13        0.00000000      0.00000000      0.00000000      0.00000000      0.00000000      0.00000000      1.35500000      0.96500000 #  o_1       c=2        oh         ho   

MiddleBondTorsion Coeffs  # class2

1         0.00000000      0.00000000      0.00000000      1.36800000 #  cp        c=2        oh         ho   
2         0.00000000      0.00000000      0.00000000      1.50000000 #  o_1       c=2        cp         cp   
3         0.00000000      0.00000000      0.00000000      1.50000000 #  oh        c=2        cp         cp   
4        27.59890000     -2.31200000      0.00000000      1.41700000 #  cp         cp        cp         cp   
5         0.00000000      0.00000000      0.00000000      1.41700000 #  c=2        cp        cp         cp   
6         0.00000000      4.82280000      0.00000000      1.41700000 #  hc         cp        cp         hc   
7         0.00000000     -1.15210000      0.00000000      1.41700000 #  cp         cp        cp         hc   
8         0.00000000      0.00000000      0.00000000      1.41700000 #  c=2        cp        cp         hc   
9         0.00000000      4.82550000      0.00000000      1.41700000 #  cp         cp        cp         oh   
10        0.00000000      5.54320000      0.00000000      1.41700000 #  hc         cp        cp         oh   
11        0.00000000      0.00000000      0.00000000      1.41700000 #  c=2        cp        cp         oh   
12        1.15800000      3.26970000      3.51320000      1.37680000 #  cp         cp        oh         ho   
13        0.00000000      0.00000000      0.00000000      1.36800000 #  o_1       c=2        oh         ho   

BondBond13 Coeffs  # class2

1         0.00000000      1.50000000      0.96500000 #  cp        c=2        oh         ho   
2         0.00000000      1.35500000      1.41700000 #  o_1       c=2        cp         cp   
3         0.00000000      1.36800000      1.41700000 #  oh        c=2        cp         cp   
4        53.00000000      1.41700000      1.41700000 #  cp         cp        cp         cp   
5         0.00000000      1.50000000      1.41700000 #  c=2        cp        cp         cp   
6        -1.70770000      1.09820000      1.09820000 #  hc         cp        cp         hc   
7        -6.27410000      1.41700000      1.09820000 #  cp         cp        cp         hc   
8         0.00000000      1.50000000      1.09820000 #  c=2        cp        cp         hc   
9        -2.24360000      1.41700000      1.37680000 #  cp         cp        cp         oh   
10        2.05170000      1.09820000      1.37680000 #  hc         cp        cp         oh   
11        0.00000000      1.50000000      1.37680000 #  c=2        cp        cp         oh   
12        1.15900000      1.41700000      0.96500000 #  cp         cp        oh         ho   
13        0.00000000      1.35500000      0.96500000 #  o_1       c=2        oh         ho   

AngleTorsion Coeffs  # class2

1         0.00000000      0.00000000      0.00000000      0.00000000      0.00000000      0.00000000    120.00000000    109.00000000 #  cp        c=2        oh         ho   
2         0.00000000      0.00000000      0.00000000      0.00000000      0.00000000      0.00000000    120.00000000    120.00000000 #  o_1       c=2        cp         cp   
3         0.00000000      0.00000000      0.00000000      0.00000000      0.00000000      0.00000000    120.00000000    120.00000000 #  oh        c=2        cp         cp   
4         1.97670000      1.02390000      0.00000000      1.97670000      1.02390000      0.00000000    118.90000000    118.90000000 #  cp         cp        cp         cp   
5         0.00000000      0.00000000      0.00000000      0.00000000      0.00000000      0.00000000    120.00000000    118.90000000 #  c=2        cp        cp         cp   
6         0.00000000      2.45010000      0.00000000      0.00000000      2.45010000      0.00000000    117.94000000    117.94000000 #  hc         cp        cp         hc   
7         0.00000000      2.50140000      0.00000000      0.00000000      2.71470000      0.00000000    118.90000000    117.94000000 #  cp         cp        cp         hc   
8         0.00000000      0.00000000      0.00000000      0.00000000      0.00000000      0.00000000    120.00000000    117.94000000 #  c=2        cp        cp         hc   
9         0.00000000     10.01550000      0.00000000      0.00000000      1.74040000      0.00000000    118.90000000    123.42000000 #  cp         cp        cp         oh   
10        0.00000000      1.87290000      0.00000000      0.00000000      2.57060000      0.00000000    117.94000000    123.42000000 #  hc         cp        cp         oh   
11        0.00000000      0.00000000      0.00000000      0.00000000      0.00000000      0.00000000    120.00000000    123.42000000 #  c=2        cp        cp         oh   
12       -5.13600000     -1.01220000      0.00000000      4.68520000      0.02300000     -0.59800000    123.42000000    108.19000000 #  cp         cp        oh         ho   
13        0.00000000      0.00000000      0.00000000      0.00000000      0.00000000      0.00000000    120.00000000    109.00000000 #  o_1       c=2        oh         ho   

AngleAngle Coeffs  # class2

1         0.00000000      0.00000000      0.00000000    120.00000000    118.90000000    120.00000000 #  c=2        cp        cp        cp      nb==3   
2         0.00000000      0.00000000      0.00000000    120.00000000    120.00000000    120.00000000 #  cp        c=2       o_1        oh      nb==3   
3         0.00000000      0.00000000      0.00000000    118.90000000    117.94000000    117.94000000 #  cp         cp        cp        hc      nb==3   
4         0.00000000      0.00000000      0.00000000    118.90000000    123.42000000    123.42000000 #  cp         cp        cp        oh      nb==3   

Atoms # full

  1     1   2   -0.126800   -0.196293750    -1.432100000    -1.380800000      0    0    0 #  cp/C
  2     1   2   -0.126800   -1.482893750    -1.367100000    -0.850500000      0    0    0 #  cp/C
  3     1   2   -0.126800   -1.769693750    -0.471900000     0.180900000      0    0    0 #  cp/C
  4     1   2    0.026500   -0.765393750     0.360200000     0.684800000      0    0    0 #  cp/C
  5     1   2    0.000000    0.532606250     0.302100000     0.162000000      0    0    0 #  cp/C
  6     1   2   -0.126800    0.807906250    -0.602200000    -0.877400000      0    0    0 #  cp/C
  7     1   1    0.384800    1.619706250     1.159100000     0.704300000      0    0    0 #  c=2/C
  8     1   5   -0.358300    1.700806250     1.669500000     1.804600000      0    0    0 #  o_1/O
  9     1   6   -0.450600    2.603306250     1.345400000    -0.201000000      0    0    0 #  oh/O
  10    1   6   -0.450600   -1.078293750     1.246400000     1.676200000      0    0    0 #  oh/O
  11    1   3    0.126800    0.027806250    -2.128900000    -2.184900000      0    0    0 #  hc/H
  12    1   3    0.126800   -2.264693750    -2.012900000    -1.243300000      0    0    0 #  hc/H
  13    1   3    0.126800   -2.781293750    -0.431200000     0.574700000      0    0    0 #  hc/H
  14    1   3    0.126800    1.808806250    -0.670900000    -1.297800000      0    0    0 #  hc/H
  15    1   4    0.424100    3.227806250     1.933300000     0.273700000      0    0    0 #  ho/H
  16    1   4    0.424100   -1.990193750     1.101200000     1.974500000      0    0    0 #  ho/H

Bonds

  1   4     1     2  
  2   4     1     6  
  3   5     1    11  
  4   4     2     3  
  5   5     2    12  
  6   4     3     4  
  7   5     3    13  
  8   4     4     5  
  9   6     4    10  
 10   4     5     6  
 11   1     7     5  
 12   5     6    14  
 13   2     7     8  
 14   3     7     9  
 15   7    15     9  
 16   7    16    10  

Angles

  1   5     2     1     6  
  2   6     6     1    11  
  3   6     2     1    11  
  4   6     3     2    12  
  5   5     1     2     3  
  6   6     1     2    12  
  7   6     2     3    13  
  8   6     4     3    13  
  9   5     2     3     4  
 10   7     3     4    10  
 11   7     5     4    10  
 12   5     3     4     5  
 13   5     4     5     6  
 14   1     7     5     6  
 15   1     7     5     4  
 16   6     5     6    14  
 17   5     1     6     5  
 18   6     1     6    14  
 19   4     5     7     9  
 20   3     5     7     8  
 21   9     8     7     9  
 22   2     7     9    15  
 23   8     4    10    16  

Dihedrals

  1   6    11     1     2    12  
  2   6    11     1     6    14  
  3   4     2     1     6     5  
  4   7     2     1     6    14  
  5   7     6     1     2    12  
  6   6    12     2     3    13  
  7   4     3     2     1     6  
  8   4     1     2     3     4  
  9   7     1     2     3    13  
 10   7     3     2     1    11  
 11   4     2     3     4     5  
 12   7     4     3     2    12  
 13   9     2     3     4    10  
 14   12    5     4    10    16  
 15   7     5     4     3    13  
 16   4     3     4     5     6  
 17   10   13     3     4    10  
 18   12    3     4    10    16  
 19   5     7     5     4     3  
 20   3     9     7     5     4  
 21   9     6     5     4    10  
 22   3     9     7     5     6  
 23   2     8     7     5     4  
 24   2     8     7     5     6  
 25   8     7     5     6    14  
 26   7     4     5     6    14  
 27   11    7     5     4    10  
 28   4     1     6     5     4  
 29   5     7     5     6     1  
 30   7     5     6     1    11  
 31   1     5     7     9    15  
 32   13    8     7     9    15  

Impropers

  1   3     2     1     6    11  
  2   3     1     2     3    12  
  3   3     2     3     4    13  
  4   4     3     4     5    10  
  5   1     7     5     4     6  
  6   3     1     6     5    14  
  7   2     5     7     8     9  
