HEADER,  data2.mol  read w/ mol2lmp > atom_typing v1.11 / 14 April 2025 w/PCFF-IFF atom-types > all2lmp: v1.22 / 14 April 2025  Class: 2

12 atoms
11 bonds
17 angles
20 dihedrals
9 impropers

6 atom types
7 bond types
11 angle types
12 dihedral types
6 improper types

-2.584591667 3.453808333 xlo xhi
-2.023908333 1.968191667 ylo yhi
-1.524266667 1.679533333 zlo zhi

Masses

1   12.01115000  #  c2   
2   12.01115000  #  c_1  
3    1.00797000  #  hc   
4    1.00797000  #  ho   
5   15.99940000  #  o_1  
6   15.99940000  #  oh   

Pair Coeffs  # lj/class2/coul/long

1         0.05400000      4.01000000 #  c2   
2         0.12000000      3.81000000 #  c_1  
3         0.02000000      2.99500000 #  hc   
4         0.01300000      1.09800000 #  ho   
5         0.26700000      3.30000000 #  o_1  
6         0.24000000      3.53500000 #  oh   

Bond Coeffs  # class2

1         1.53000000    299.67000000   -501.77000000    679.81000000 #  c2          c2   
2         1.52020000    253.70670000   -423.03700000    396.90000000 #  c2         c_1   
3         1.10100000    345.00000000   -691.89000000    844.60000000 #  c2          hc   
4         1.42000000    400.39540000   -835.19510000   1313.01420000 #  c2          oh   
5         1.20200000    851.14030000  -1918.48820000   2160.76590000 #  c_1        o_1   
6         1.36490000    368.73090000   -832.47840000   1274.02310000 #  c_1         oh   
7         0.96500000    532.50620000  -1282.90500000   2004.76580000 #  ho          oh   

Angle Coeffs  # class2

1       108.52950000     51.97470000     -9.48510000    -10.99850000 #  c2         c2        c_1   
2       110.77000000     41.45300000    -10.60400000      5.12900000 #  c2         c2         hc   
3       111.27000000     54.53810000     -8.36420000    -13.08380000 #  c2         c2         oh   
4       123.14510000     55.54310000    -17.21230000      0.13480000 #  c2        c_1        o_1   
5       110.00000000    122.00000000      0.00000000      0.00000000 #  c2        c_1         oh   
6       105.80000000     52.70610000    -12.10900000     -9.86810000 #  c2         oh         ho   
7       107.73360000     40.60990000    -28.81210000      0.00000000 #  c_1        c2         hc   
8       111.25370000     53.53030000    -11.84540000    -11.54050000 #  c_1        oh         ho   
9       107.66000000     39.64100000    -12.92100000     -2.43180000 #  hc         c2         hc   
10      108.72800000     58.54460000    -10.80880000    -12.40060000 #  hc         c2         oh   
11      118.98550000     98.68130000    -22.24850000     10.36730000 #  oh        c_1        o_1   

Dihedral Coeffs  # class2

1        -0.02280000      0.00000000      0.02800000      0.00000000     -0.18630000      0.00000000 #  c_1        c2        c2         hc   
2        -0.14320000      0.00000000      0.06170000      0.00000000     -0.10830000      0.00000000 #  hc         c2        c2         hc   
3        -0.08580000      0.00000000     -0.13200000      0.00000000     -0.59090000      0.00000000 #  c_1        c2        c2         oh   
4        -0.14350000      0.00000000      0.25300000      0.00000000     -0.09050000      0.00000000 #  hc         c2        c2         oh   
5         0.04420000      0.00000000      0.02920000      0.00000000      0.05620000      0.00000000 #  c2         c2       c_1        o_1   
6        -0.18040000      0.00000000      0.00120000      0.00000000      0.03710000      0.00000000 #  hc         c2       c_1        o_1   
7         0.00000000      0.00000000      0.00000000      0.00000000      0.00000000      0.00000000 #  oh        c_1        c2         c2   
8         0.00000000      0.00000000      0.00000000      0.00000000      0.00000000      0.00000000 #  oh        c_1        c2         hc   
9         0.18630000      0.00000000     -0.43380000      0.00000000     -0.21210000      0.00000000 #  hc         c2        oh         ho   
10       -0.67320000      0.00000000     -0.47780000      0.00000000     -0.16700000      0.00000000 #  c2         c2        oh         ho   
11        0.00000000      0.00000000      2.25000000      0.00000000      0.00000000      0.00000000 #  c2        c_1        oh         ho   
12       -2.73320000      0.00000000      2.96460000      0.00000000     -0.01550000      0.00000000 #  o_1       c_1        oh         ho   

Improper Coeffs  # class2

1        36.00000000      0.00000000 #  c2        c_1       o_1        oh      nb==3   
2         0.00000000      0.00000000 #  c2         c2       c_1        hc      nb!=3   
3         0.00000000      0.00000000 #  c2         c2        hc        hc      nb!=3   
4         0.00000000      0.00000000 #  c2         c2        hc        oh      nb!=3   
5         0.00000000      0.00000000 #  c_1        c2        hc        hc      nb!=3   
6         0.00000000      0.00000000 #  hc         c2        hc        oh      nb!=3   

BondBond Coeffs  # class2

1         5.41990000      1.53000000      1.52020000 #  c2         c2        c_1   
2         3.38720000      1.53000000      1.10100000 #  c2         c2         hc   
3        11.43180000      1.53000000      1.42000000 #  c2         c2         oh   
4        46.06850000      1.52020000      1.20200000 #  c2        c_1        o_1   
5         0.00000000      1.52020000      1.36490000 #  c2        c_1         oh   
6        -9.68790000      1.42000000      0.96500000 #  c2         oh         ho   
7         0.71150000      1.52020000      1.10100000 #  c_1        c2         hc   
8         0.00000000      1.36490000      0.96500000 #  c_1        oh         ho   
9         5.33160000      1.10100000      1.10100000 #  hc         c2         hc   
10       23.19790000      1.10100000      1.42000000 #  hc         c2         oh   
11        0.00000000      1.36490000      1.20200000 #  oh        c_1        o_1   

BondAngle Coeffs  # class2

1        18.16780000     15.87580000      1.53000000      1.52020000 #  c2         c2        c_1   
2        20.75400000     11.42100000      1.53000000      1.10100000 #  c2         c2         hc   
3         2.68680000     20.40330000      1.53000000      1.42000000 #  c2         c2         oh   
4        34.99820000     37.12980000      1.52020000      1.20200000 #  c2        c_1        o_1   
5         0.00000000      0.00000000      1.52020000      1.36490000 #  c2        c_1         oh   
6        28.58000000     18.92770000      1.42000000      0.96500000 #  c2         oh         ho   
7        12.46320000      9.17650000      1.52020000      1.10100000 #  c_1        c2         hc   
8         0.00000000      0.00000000      1.36490000      0.96500000 #  c_1        oh         ho   
9        18.10300000     18.10300000      1.10100000      1.10100000 #  hc         c2         hc   
10        4.61890000     55.32700000      1.10100000      1.42000000 #  hc         c2         oh   
11        0.00000000      0.00000000      1.36490000      1.20200000 #  oh        c_1        o_1   

AngleAngleTorsion Coeffs  # class2

1        -5.36240000    108.52950000    110.77000000 #  c_1        c2        c2         hc   
2       -12.56400000    110.77000000    110.77000000 #  hc         c2        c2         hc   
3         0.00000000    108.52950000    111.27000000 #  c_1        c2        c2         oh   
4       -20.20060000    110.77000000    111.27000000 #  hc         c2        c2         oh   
5        -8.01900000    108.52950000    123.14510000 #  c2         c2       c_1        o_1   
6       -15.34960000    107.73360000    123.14510000 #  hc         c2       c_1        o_1   
7         0.00000000    110.00000000    108.52950000 #  oh        c_1        c2         c2   
8         0.00000000    110.00000000    107.73360000 #  oh        c_1        c2         hc   
9       -10.50930000    108.72800000    105.80000000 #  hc         c2        oh         ho   
10      -12.10380000    111.27000000    105.80000000 #  c2         c2        oh         ho   
11        0.00000000    110.00000000    111.25370000 #  c2        c_1        oh         ho   
12        0.00000000    118.98550000    111.25370000 #  o_1       c_1        oh         ho   

EndBondTorsion Coeffs  # class2

1        -0.02040000      0.36280000     -0.44260000     -0.00970000     -0.03150000     -0.07550000      1.52020000      1.10100000 #  c_1        c2        c2         hc   
2         0.21300000      0.31200000      0.07770000      0.21300000      0.31200000      0.07770000      1.10100000      1.10100000 #  hc         c2        c2         hc   
3         0.00000000      0.00000000      0.00000000      0.00000000      0.00000000      0.00000000      1.52020000      1.42000000 #  c_1        c2        c2         oh   
4         0.96810000      0.95510000      0.04360000      0.59030000      0.66690000      0.85840000      1.10100000      1.42000000 #  hc         c2        c2         oh   
5         0.26540000      0.05030000      0.10460000     -0.28100000      0.08160000     -0.15220000      1.53000000      1.20200000 #  c2         c2       c_1        o_1   
6         1.21430000      0.28310000      0.39160000     -0.22980000      0.03540000      0.38530000      1.10100000      1.20200000 #  hc         c2       c_1        o_1   
7         0.00000000      0.00000000      0.00000000      0.00000000      0.00000000      0.00000000      1.36490000      1.53000000 #  oh        c_1        c2         c2   
8         0.00000000      0.00000000      0.00000000      0.00000000      0.00000000      0.00000000      1.36490000      1.10100000 #  oh        c_1        c2         hc   
9        -1.75540000      1.31450000      0.22630000      0.24930000      0.68030000      0.00000000      1.10100000      0.96500000 #  hc         c2        oh         ho   
10       -0.58000000      0.90040000      0.00000000      0.00000000      0.53430000      0.90250000      1.53000000      0.96500000 #  c2         c2        oh         ho   
11        0.00000000      0.00000000      0.00000000      0.00000000      0.00000000      0.00000000      1.52020000      0.96500000 #  c2        c_1        oh         ho   
12        0.00000000      0.00000000      0.00000000      0.00000000      0.00000000      0.00000000      1.20200000      0.96500000 #  o_1       c_1        oh         ho   

MiddleBondTorsion Coeffs  # class2

1        -3.50390000      1.24580000     -0.76100000      1.53000000 #  c_1        c2        c2         hc   
2       -14.26100000     -0.53220000     -0.48640000      1.53000000 #  hc         c2        c2         hc   
3         0.00000000      0.00000000      0.00000000      1.53000000 #  c_1        c2        c2         oh   
4       -16.79750000     -1.22960000     -0.27500000      1.53000000 #  hc         c2        c2         oh   
5         0.33880000     -0.10960000      0.12190000      1.52020000 #  c2         c2       c_1        o_1   
6         0.23590000      0.91390000      0.95940000      1.52020000 #  hc         c2       c_1        o_1   
7         0.00000000      0.00000000      0.00000000      1.52020000 #  oh        c_1        c2         c2   
8         0.00000000      0.00000000      0.00000000      1.52020000 #  oh        c_1        c2         hc   
9         0.00000000      0.92410000     -0.58890000      1.42000000 #  hc         c2        oh         ho   
10        1.24720000      0.00000000      0.74850000      1.42000000 #  c2         c2        oh         ho   
11        0.00000000      0.00000000      0.00000000      1.36490000 #  c2        c_1        oh         ho   
12        0.00000000      0.00000000      0.00000000      1.36490000 #  o_1       c_1        oh         ho   

BondBond13 Coeffs  # class2

1         0.00000000      1.52020000      1.10100000 #  c_1        c2        c2         hc   
2         0.00000000      1.10100000      1.10100000 #  hc         c2        c2         hc   
3         0.00000000      1.52020000      1.42000000 #  c_1        c2        c2         oh   
4         0.00000000      1.10100000      1.42000000 #  hc         c2        c2         oh   
5         0.00000000      1.53000000      1.20200000 #  c2         c2       c_1        o_1   
6         0.00000000      1.10100000      1.20200000 #  hc         c2       c_1        o_1   
7         0.00000000      1.36490000      1.53000000 #  oh        c_1        c2         c2   
8         0.00000000      1.36490000      1.10100000 #  oh        c_1        c2         hc   
9         0.00000000      1.10100000      0.96500000 #  hc         c2        oh         ho   
10        0.00000000      1.53000000      0.96500000 #  c2         c2        oh         ho   
11        0.00000000      1.52020000      0.96500000 #  c2        c_1        oh         ho   
12        0.00000000      1.20200000      0.96500000 #  o_1       c_1        oh         ho   

AngleTorsion Coeffs  # class2

1        -0.74660000     -0.94480000     -0.63210000      0.01620000      1.42110000     -1.40920000    108.52950000    110.77000000 #  c_1        c2        c2         hc   
2        -0.80850000      0.55690000     -0.24660000     -0.80850000      0.55690000     -0.24660000    110.77000000    110.77000000 #  hc         c2        c2         hc   
3         0.00000000      0.00000000      0.00000000      0.00000000      0.00000000      0.00000000    108.52950000    111.27000000 #  c_1        c2        c2         oh   
4         2.36680000      2.49200000     -1.01220000     -0.18920000      0.49180000      0.72730000    110.77000000    111.27000000 #  hc         c2        c2         oh   
5         0.08850000     -1.37030000     -0.54520000      0.67500000      0.59650000      0.67250000    108.52950000    123.14510000 #  c2         c2       c_1        o_1   
6         9.12990000     -0.48470000      0.35820000     -1.49460000      0.73080000     -0.20830000    107.73360000    123.14510000 #  hc         c2       c_1        o_1   
7         0.00000000      0.00000000      0.00000000      0.00000000      0.00000000      0.00000000    110.00000000    108.52950000 #  oh        c_1        c2         c2   
8         0.00000000      0.00000000      0.00000000      0.00000000      0.00000000      0.00000000    110.00000000    107.73360000 #  oh        c_1        c2         hc   
9        -3.40600000      1.63960000      0.07370000      0.00000000     -0.28100000     -0.59440000    108.72800000    105.80000000 #  hc         c2        oh         ho   
10       -3.59030000      2.52250000      0.48880000      0.87260000     -0.35770000      0.38880000    111.27000000    105.80000000 #  c2         c2        oh         ho   
11        0.00000000      0.00000000      0.00000000      0.00000000      0.00000000      0.00000000    110.00000000    111.25370000 #  c2        c_1        oh         ho   
12        0.00000000      0.00000000      0.00000000      0.00000000      0.00000000      0.00000000    118.98550000    111.25370000 #  o_1       c_1        oh         ho   

AngleAngle Coeffs  # class2

1         0.00000000      0.00000000      0.00000000    123.14510000    118.98550000    110.00000000 #  c2        c_1       o_1        oh      nb==3   
2         2.04030000     -1.82020000      1.08270000    108.52950000    110.77000000    107.73360000 #  c2         c2       c_1        hc      nb!=3   
3         0.27380000     -0.48250000      0.27380000    110.77000000    110.77000000    107.66000000 #  c2         c2        hc        hc      nb!=3   
4         3.91770000      2.59260000      0.16890000    110.77000000    111.27000000    108.72800000 #  c2         c2        hc        oh      nb!=3   
5        -3.38670000     -3.49760000     -3.38670000    107.73360000    107.73360000    107.66000000 #  c_1        c2        hc        hc      nb!=3   
6         2.42590000      2.42590000      2.12830000    107.66000000    108.72800000    108.72800000 #  hc         c2        hc        oh      nb!=3   

Atoms # full

  1     1   6   -0.557100   -1.764791667     0.687291667    -0.811966667      0    0    0 #  oh/O
  2     1   1    0.027000   -1.327491667    -0.116708333     0.278433333      0    0    0 #  c2/C
  3     1   1   -0.106000    0.012408333    -0.763708333    -0.030766667      0    0    0 #  c2/C
  4     1   2    0.534000    1.111408333     0.257491667     0.000833333      0    0    0 #  c_1/C
  5     1   6   -0.427100    2.330708333    -0.304008333     0.105533333      0    0    0 #  oh/O
  6     1   5   -0.531000    0.985508333     1.468191667    -0.086366667      0    0    0 #  o_1/O
  7     1   4    0.424100   -1.157791667     1.452791667    -0.858366667      0    0    0 #  ho/H
  8     1   3    0.053000   -1.289791667     0.504691667     1.179533333      0    0    0 #  hc/H
  9     1   3    0.053000   -2.084591667    -0.891708333     0.432933333      0    0    0 #  hc/H
  10    1   3    0.053000    0.225608333    -1.523908333     0.728133333      0    0    0 #  hc/H
  11    1   3    0.053000    0.005008333    -1.223108333    -1.024266667      0    0    0 #  hc/H
  12    1   4    0.424100    2.953808333     0.452691667     0.086333333      0    0    0 #  ho/H

Bonds

  1   4     2     1  
  2   7     7     1  
  3   1     2     3  
  4   3     2     8  
  5   3     2     9  
  6   2     3     4  
  7   3     3    10  
  8   3     3    11  
  9   6     4     5  
 10   5     4     6  
 11   7    12     5  

Angles

  1   6     2     1     7  
  2   2     3     2     9  
  3   3     3     2     1  
  4   10    9     2     1  
  5   2     3     2     8  
  6   9     8     2     9  
  7   10    8     2     1  
  8   7     4     3    11  
  9   9    10     3    11  
 10   2     2     3    11  
 11   1     2     3     4  
 12   7     4     3    10  
 13   2     2     3    10  
 14   4     3     4     6  
 15   5     3     4     5  
 16   11    5     4     6  
 17   8     4     5    12  

Dihedrals

  1   9     9     2     1     7  
  2   9     8     2     1     7  
  3   3     4     3     2     1  
  4   4    10     3     2     1  
  5   2     8     2     3    10  
  6   2     9     2     3    11  
  7   10    3     2     1     7  
  8   4    11     3     2     1  
  9   2     8     2     3    11  
 10   2     9     2     3    10  
 11   5     2     3     4     6  
 12   7     5     4     3     2  
 13   1     4     3     2     9  
 14   1     4     3     2     8  
 15   8     5     4     3    10  
 16   12    6     4     5    12  
 17   11    3     4     5    12  
 18   6    11     3     4     6  
 19   8     5     4     3    11  
 20   6    10     3     4     6  

Impropers

  1   1     3     4     6     5  
  2   3     3     2     8     9  
  3   4     3     2     8     1  
  4   4     3     2     9     1  
  5   6     8     2     9     1  
  6   2     2     3     4    10  
  7   3     2     3    10    11  
  8   5     4     3    10    11  
  9   2     2     3     4    11  
