HEADER,  pre1.mol  read w/ mol2lmp > atom_typing v1.11 / 14 April 2025 w/PCFF-IFF atom-types > all2lmp: v1.22 / 14 April 2025  Class: 2

28 atoms
27 bonds
40 angles
52 dihedrals
16 impropers

8 atom types
13 bond types
20 angle types
25 dihedral types
10 improper types

-7.106060714 7.580439286 xlo xhi
-2.727996429 3.185903571 ylo yhi
-2.105317857 1.835982143 zlo zhi

Masses

1   12.01115000  #  c2   
2   12.01115000  #  c=2  
3   12.01115000  #  c_1  
4   12.01115000  #  cp   
5    1.00797000  #  hc   
6    1.00797000  #  ho   
7   15.99940000  #  o_1  
8   15.99940000  #  oh   

Pair Coeffs  # lj/class2/coul/long

1         0.05400000      4.01000000 #  c2   
2         0.06400000      4.01000000 #  c=2  
3         0.12000000      3.81000000 #  c_1  
4         0.06400000      4.01000000 #  cp   
5         0.02000000      2.99500000 #  hc   
6         0.01300000      1.09800000 #  ho   
7         0.26700000      3.30000000 #  o_1  
8         0.24000000      3.53500000 #  oh   

Bond Coeffs  # class2

1         1.53000000    299.67000000   -501.77000000    679.81000000 #  c2          c2   
2         1.52020000    253.70670000   -423.03700000    396.90000000 #  c2         c_1   
3         1.10100000    345.00000000   -691.89000000    844.60000000 #  c2          hc   
4         1.42000000    400.39540000   -835.19510000   1313.01420000 #  c2          oh   
5         1.50000000    322.80000000      0.00000000      0.00000000 #  c=2         cp   
6         1.35500000    312.91160000      0.00000000      0.00000000 #  c=2        o_1   
7         1.36800000    355.19880000      0.00000000      0.00000000 #  c=2         oh   
8         1.20200000    851.14030000  -1918.48820000   2160.76590000 #  c_1        o_1   
9         1.36490000    368.73090000   -832.47840000   1274.02310000 #  c_1         oh   
10        1.41700000    470.83610000   -627.61790000   1327.63450000 #  cp          cp   
11        1.09820000    372.82510000   -803.45260000    894.31730000 #  cp          hc   
12        1.37680000    428.87980000   -738.23510000   1114.96550000 #  cp          oh   
13        0.96500000    532.50620000  -1282.90500000   2004.76580000 #  ho          oh   

Angle Coeffs  # class2

1       108.52950000     51.97470000     -9.48510000    -10.99850000 #  c2         c2        c_1   
2       110.77000000     41.45300000    -10.60400000      5.12900000 #  c2         c2         hc   
3       111.27000000     54.53810000     -8.36420000    -13.08380000 #  c2         c2         oh   
4       123.14510000     55.54310000    -17.21230000      0.13480000 #  c2        c_1        o_1   
5       110.00000000    122.00000000      0.00000000      0.00000000 #  c2        c_1         oh   
6       105.80000000     52.70610000    -12.10900000     -9.86810000 #  c2         oh         ho   
7       120.00000000     80.00000000      0.00000000      0.00000000 #  c=2        cp         cp   
8       109.00000000     58.50000000      0.00000000      0.00000000 #  c=2        oh         ho   
9       107.73360000     40.60990000    -28.81210000      0.00000000 #  c_1        c2         hc   
10      111.25370000     53.53030000    -11.84540000    -11.54050000 #  c_1        oh         ho   
11      120.00000000     68.00000000      0.00000000      0.00000000 #  cp        c=2        o_1   
12      120.00000000     68.00000000      0.00000000      0.00000000 #  cp        c=2         oh   
13      118.90000000     61.02260000    -34.99310000      0.00000000 #  cp         cp         cp   
14      117.94000000     35.15580000    -12.46820000      0.00000000 #  cp         cp         hc   
15      123.42000000     73.67810000    -21.67870000      0.00000000 #  cp         cp         oh   
16      108.19000000     53.12500000     -8.50160000      0.00000000 #  cp         oh         ho   
17      107.66000000     39.64100000    -12.92100000     -2.43180000 #  hc         c2         hc   
18      108.72800000     58.54460000    -10.80880000    -12.40060000 #  hc         c2         oh   
19      120.00000000     68.00000000      0.00000000      0.00000000 #  o_1       c=2         oh   
20      118.98550000     98.68130000    -22.24850000     10.36730000 #  oh        c_1        o_1   

Dihedral Coeffs  # class2

1        -0.02280000      0.00000000      0.02800000      0.00000000     -0.18630000      0.00000000 #  c_1        c2        c2         hc   
2        -0.14320000      0.00000000      0.06170000      0.00000000     -0.10830000      0.00000000 #  hc         c2        c2         hc   
3        -0.14350000      0.00000000      0.25300000      0.00000000     -0.09050000      0.00000000 #  hc         c2        c2         oh   
4        -0.08580000      0.00000000     -0.13200000      0.00000000     -0.59090000      0.00000000 #  c_1        c2        c2         oh   
5         0.04420000      0.00000000      0.02920000      0.00000000      0.05620000      0.00000000 #  c2         c2       c_1        o_1   
6        -0.18040000      0.00000000      0.00120000      0.00000000      0.03710000      0.00000000 #  hc         c2       c_1        o_1   
7         0.00000000      0.00000000      0.00000000      0.00000000      0.00000000      0.00000000 #  oh        c_1        c2         hc   
8         0.00000000      0.00000000      0.00000000      0.00000000      0.00000000      0.00000000 #  oh        c_1        c2         c2   
9        -0.67320000      0.00000000     -0.47780000      0.00000000     -0.16700000      0.00000000 #  c2         c2        oh         ho   
10        0.18630000      0.00000000     -0.43380000      0.00000000     -0.21210000      0.00000000 #  hc         c2        oh         ho   
11        0.00000000      0.00000000      0.90000000      0.00000000      0.00000000      0.00000000 #  cp        c=2        oh         ho   
12        0.00000000      0.00000000      2.25000000      0.00000000      0.00000000      0.00000000 #  c2        c_1        oh         ho   
13        0.00000000      0.00000000      0.50000000      0.00000000      0.00000000      0.00000000 #  o_1       c=2        cp         cp   
14        0.00000000      0.00000000      0.50000000      0.00000000      0.00000000      0.00000000 #  oh        c=2        cp         cp   
15        8.36670000      0.00000000      1.19320000      0.00000000      0.00000000      0.00000000 #  cp         cp        cp         cp   
16        0.00000000      0.00000000      3.00000000      0.00000000      0.00000000      0.00000000 #  c=2        cp        cp         cp   
17        0.00000000      0.00000000      1.87690000      0.00000000      0.00000000      0.00000000 #  hc         cp        cp         hc   
18        0.00000000      0.00000000      3.96610000      0.00000000      0.00000000      0.00000000 #  cp         cp        cp         hc   
19        0.00000000      0.00000000      3.00000000      0.00000000      0.00000000      0.00000000 #  c=2        cp        cp         hc   
20        0.00000000      0.00000000      4.84980000      0.00000000      0.00000000      0.00000000 #  cp         cp        cp         oh   
21        0.00000000      0.00000000      3.00000000      0.00000000      0.00000000      0.00000000 #  c=2        cp        cp         oh   
22        0.00000000      0.00000000      1.72340000      0.00000000      0.00000000      0.00000000 #  hc         cp        cp         oh   
23       -0.69000000      0.00000000      0.50970000      0.00000000      0.00950000      0.00000000 #  cp         cp        oh         ho   
24        0.00000000      0.00000000      0.90000000      0.00000000      0.00000000      0.00000000 #  o_1       c=2        oh         ho   
25       -2.73320000      0.00000000      2.96460000      0.00000000     -0.01550000      0.00000000 #  o_1       c_1        oh         ho   

Improper Coeffs  # class2

1        36.00000000      0.00000000 #  c2        c_1       o_1        oh      nb==3   
2        10.00000000      0.00000000 #  c=2        cp        cp        cp      nb==3   
3         2.05680000      0.00000000 #  cp        c=2       o_1        oh      nb==3   
4         4.89120000      0.00000000 #  cp         cp        cp        hc      nb==3   
5        13.04210000      0.00000000 #  cp         cp        cp        oh      nb==3   
6         0.00000000      0.00000000 #  c2         c2       c_1        hc      nb!=3   
7         0.00000000      0.00000000 #  c2         c2        hc        hc      nb!=3   
8         0.00000000      0.00000000 #  c2         c2        hc        oh      nb!=3   
9         0.00000000      0.00000000 #  c_1        c2        hc        hc      nb!=3   
10        0.00000000      0.00000000 #  hc         c2        hc        oh      nb!=3   

BondBond Coeffs  # class2

1         5.41990000      1.53000000      1.52020000 #  c2         c2        c_1   
2         3.38720000      1.53000000      1.10100000 #  c2         c2         hc   
3        11.43180000      1.53000000      1.42000000 #  c2         c2         oh   
4        46.06850000      1.52020000      1.20200000 #  c2        c_1        o_1   
5         0.00000000      1.52020000      1.36490000 #  c2        c_1         oh   
6        -9.68790000      1.42000000      0.96500000 #  c2         oh         ho   
7         0.00000000      1.50000000      1.41700000 #  c=2        cp         cp   
8         0.00000000      1.36800000      0.96500000 #  c=2        oh         ho   
9         0.71150000      1.52020000      1.10100000 #  c_1        c2         hc   
10        0.00000000      1.36490000      0.96500000 #  c_1        oh         ho   
11        0.00000000      1.50000000      1.35500000 #  cp        c=2        o_1   
12        0.00000000      1.50000000      1.36800000 #  cp        c=2         oh   
13       68.28560000      1.41700000      1.41700000 #  cp         cp         cp   
14        1.07950000      1.41700000      1.09820000 #  cp         cp         hc   
15       48.47540000      1.41700000      1.37680000 #  cp         cp         oh   
16       20.65770000      1.37680000      0.96500000 #  cp         oh         ho   
17        5.33160000      1.10100000      1.10100000 #  hc         c2         hc   
18       23.19790000      1.10100000      1.42000000 #  hc         c2         oh   
19        0.00000000      1.35500000      1.36800000 #  o_1       c=2         oh   
20        0.00000000      1.36490000      1.20200000 #  oh        c_1        o_1   

BondAngle Coeffs  # class2

1        18.16780000     15.87580000      1.53000000      1.52020000 #  c2         c2        c_1   
2        20.75400000     11.42100000      1.53000000      1.10100000 #  c2         c2         hc   
3         2.68680000     20.40330000      1.53000000      1.42000000 #  c2         c2         oh   
4        34.99820000     37.12980000      1.52020000      1.20200000 #  c2        c_1        o_1   
5         0.00000000      0.00000000      1.52020000      1.36490000 #  c2        c_1         oh   
6        28.58000000     18.92770000      1.42000000      0.96500000 #  c2         oh         ho   
7         0.00000000      0.00000000      1.50000000      1.41700000 #  c=2        cp         cp   
8         0.00000000      0.00000000      1.36800000      0.96500000 #  c=2        oh         ho   
9        12.46320000      9.17650000      1.52020000      1.10100000 #  c_1        c2         hc   
10        0.00000000      0.00000000      1.36490000      0.96500000 #  c_1        oh         ho   
11        0.00000000      0.00000000      1.50000000      1.35500000 #  cp        c=2        o_1   
12        0.00000000      0.00000000      1.50000000      1.36800000 #  cp        c=2         oh   
13       28.87080000     28.87080000      1.41700000      1.41700000 #  cp         cp         cp   
14       20.00330000     24.21830000      1.41700000      1.09820000 #  cp         cp         hc   
15       58.47900000    107.68060000      1.41700000      1.37680000 #  cp         cp         oh   
16       53.86140000     23.92240000      1.37680000      0.96500000 #  cp         oh         ho   
17       18.10300000     18.10300000      1.10100000      1.10100000 #  hc         c2         hc   
18        4.61890000     55.32700000      1.10100000      1.42000000 #  hc         c2         oh   
19        0.00000000      0.00000000      1.35500000      1.36800000 #  o_1       c=2         oh   
20        0.00000000      0.00000000      1.36490000      1.20200000 #  oh        c_1        o_1   

AngleAngleTorsion Coeffs  # class2

1        -5.36240000    108.52950000    110.77000000 #  c_1        c2        c2         hc   
2       -12.56400000    110.77000000    110.77000000 #  hc         c2        c2         hc   
3       -20.20060000    110.77000000    111.27000000 #  hc         c2        c2         oh   
4         0.00000000    108.52950000    111.27000000 #  c_1        c2        c2         oh   
5        -8.01900000    108.52950000    123.14510000 #  c2         c2       c_1        o_1   
6       -15.34960000    107.73360000    123.14510000 #  hc         c2       c_1        o_1   
7         0.00000000    110.00000000    107.73360000 #  oh        c_1        c2         hc   
8         0.00000000    110.00000000    108.52950000 #  oh        c_1        c2         c2   
9       -12.10380000    111.27000000    105.80000000 #  c2         c2        oh         ho   
10      -10.50930000    108.72800000    105.80000000 #  hc         c2        oh         ho   
11        0.00000000    120.00000000    109.00000000 #  cp        c=2        oh         ho   
12        0.00000000    110.00000000    111.25370000 #  c2        c_1        oh         ho   
13        0.00000000    120.00000000    120.00000000 #  o_1       c=2        cp         cp   
14        0.00000000    120.00000000    120.00000000 #  oh        c=2        cp         cp   
15        0.00000000    118.90000000    118.90000000 #  cp         cp        cp         cp   
16        0.00000000    120.00000000    118.90000000 #  c=2        cp        cp         cp   
17        0.35980000    117.94000000    117.94000000 #  hc         cp        cp         hc   
18       -4.81410000    118.90000000    117.94000000 #  cp         cp        cp         hc   
19        0.00000000    120.00000000    117.94000000 #  c=2        cp        cp         hc   
20      -21.02470000    118.90000000    123.42000000 #  cp         cp        cp         oh   
21        0.00000000    120.00000000    123.42000000 #  c=2        cp        cp         oh   
22        4.22960000    117.94000000    123.42000000 #  hc         cp        cp         oh   
23       -4.60720000    123.42000000    108.19000000 #  cp         cp        oh         ho   
24        0.00000000    120.00000000    109.00000000 #  o_1       c=2        oh         ho   
25        0.00000000    118.98550000    111.25370000 #  o_1       c_1        oh         ho   

EndBondTorsion Coeffs  # class2

1        -0.02040000      0.36280000     -0.44260000     -0.00970000     -0.03150000     -0.07550000      1.52020000      1.10100000 #  c_1        c2        c2         hc   
2         0.21300000      0.31200000      0.07770000      0.21300000      0.31200000      0.07770000      1.10100000      1.10100000 #  hc         c2        c2         hc   
3         0.96810000      0.95510000      0.04360000      0.59030000      0.66690000      0.85840000      1.10100000      1.42000000 #  hc         c2        c2         oh   
4         0.00000000      0.00000000      0.00000000      0.00000000      0.00000000      0.00000000      1.52020000      1.42000000 #  c_1        c2        c2         oh   
5         0.26540000      0.05030000      0.10460000     -0.28100000      0.08160000     -0.15220000      1.53000000      1.20200000 #  c2         c2       c_1        o_1   
6         1.21430000      0.28310000      0.39160000     -0.22980000      0.03540000      0.38530000      1.10100000      1.20200000 #  hc         c2       c_1        o_1   
7         0.00000000      0.00000000      0.00000000      0.00000000      0.00000000      0.00000000      1.36490000      1.10100000 #  oh        c_1        c2         hc   
8         0.00000000      0.00000000      0.00000000      0.00000000      0.00000000      0.00000000      1.36490000      1.53000000 #  oh        c_1        c2         c2   
9        -0.58000000      0.90040000      0.00000000      0.00000000      0.53430000      0.90250000      1.53000000      0.96500000 #  c2         c2        oh         ho   
10       -1.75540000      1.31450000      0.22630000      0.24930000      0.68030000      0.00000000      1.10100000      0.96500000 #  hc         c2        oh         ho   
11        0.00000000      0.00000000      0.00000000      0.00000000      0.00000000      0.00000000      1.50000000      0.96500000 #  cp        c=2        oh         ho   
12        0.00000000      0.00000000      0.00000000      0.00000000      0.00000000      0.00000000      1.52020000      0.96500000 #  c2        c_1        oh         ho   
13        0.00000000      0.00000000      0.00000000      0.00000000      0.00000000      0.00000000      1.35500000      1.41700000 #  o_1       c=2        cp         cp   
14        0.00000000      0.00000000      0.00000000      0.00000000      0.00000000      0.00000000      1.36800000      1.41700000 #  oh        c=2        cp         cp   
15       -0.11850000      6.32040000      0.00000000     -0.11850000      6.32040000      0.00000000      1.41700000      1.41700000 #  cp         cp        cp         cp   
16        0.00000000      0.00000000      0.00000000      0.00000000      0.00000000      0.00000000      1.50000000      1.41700000 #  c=2        cp        cp         cp   
17        0.00000000     -0.68900000      0.00000000      0.00000000     -0.68900000      0.00000000      1.09820000      1.09820000 #  hc         cp        cp         hc   
18        0.00000000     -6.89580000      0.00000000      0.00000000     -0.46690000      0.00000000      1.41700000      1.09820000 #  cp         cp        cp         hc   
19        0.00000000      0.00000000      0.00000000      0.00000000      0.00000000      0.00000000      1.50000000      1.09820000 #  c=2        cp        cp         hc   
20        0.00000000      0.26550000      0.00000000      0.00000000      4.89050000      0.00000000      1.41700000      1.37680000 #  cp         cp        cp         oh   
21        0.00000000      0.00000000      0.00000000      0.00000000      0.00000000      0.00000000      1.50000000      1.37680000 #  c=2        cp        cp         oh   
22        0.00000000     -1.58670000      0.00000000      0.00000000      4.26410000      0.00000000      1.09820000      1.37680000 #  hc         cp        cp         oh   
23        0.90000000     -1.34560000      1.19000000      3.41320000      0.58730000     -0.13230000      1.41700000      0.96500000 #  cp         cp        oh         ho   
24        0.00000000      0.00000000      0.00000000      0.00000000      0.00000000      0.00000000      1.35500000      0.96500000 #  o_1       c=2        oh         ho   
25        0.00000000      0.00000000      0.00000000      0.00000000      0.00000000      0.00000000      1.20200000      0.96500000 #  o_1       c_1        oh         ho   

MiddleBondTorsion Coeffs  # class2

1        -3.50390000      1.24580000     -0.76100000      1.53000000 #  c_1        c2        c2         hc   
2       -14.26100000     -0.53220000     -0.48640000      1.53000000 #  hc         c2        c2         hc   
3       -16.79750000     -1.22960000     -0.27500000      1.53000000 #  hc         c2        c2         oh   
4         0.00000000      0.00000000      0.00000000      1.53000000 #  c_1        c2        c2         oh   
5         0.33880000     -0.10960000      0.12190000      1.52020000 #  c2         c2       c_1        o_1   
6         0.23590000      0.91390000      0.95940000      1.52020000 #  hc         c2       c_1        o_1   
7         0.00000000      0.00000000      0.00000000      1.52020000 #  oh        c_1        c2         hc   
8         0.00000000      0.00000000      0.00000000      1.52020000 #  oh        c_1        c2         c2   
9         1.24720000      0.00000000      0.74850000      1.42000000 #  c2         c2        oh         ho   
10        0.00000000      0.92410000     -0.58890000      1.42000000 #  hc         c2        oh         ho   
11        0.00000000      0.00000000      0.00000000      1.36800000 #  cp        c=2        oh         ho   
12        0.00000000      0.00000000      0.00000000      1.36490000 #  c2        c_1        oh         ho   
13        0.00000000      0.00000000      0.00000000      1.50000000 #  o_1       c=2        cp         cp   
14        0.00000000      0.00000000      0.00000000      1.50000000 #  oh        c=2        cp         cp   
15       27.59890000     -2.31200000      0.00000000      1.41700000 #  cp         cp        cp         cp   
16        0.00000000      0.00000000      0.00000000      1.41700000 #  c=2        cp        cp         cp   
17        0.00000000      4.82280000      0.00000000      1.41700000 #  hc         cp        cp         hc   
18        0.00000000     -1.15210000      0.00000000      1.41700000 #  cp         cp        cp         hc   
19        0.00000000      0.00000000      0.00000000      1.41700000 #  c=2        cp        cp         hc   
20        0.00000000      4.82550000      0.00000000      1.41700000 #  cp         cp        cp         oh   
21        0.00000000      0.00000000      0.00000000      1.41700000 #  c=2        cp        cp         oh   
22        0.00000000      5.54320000      0.00000000      1.41700000 #  hc         cp        cp         oh   
23        1.15800000      3.26970000      3.51320000      1.37680000 #  cp         cp        oh         ho   
24        0.00000000      0.00000000      0.00000000      1.36800000 #  o_1       c=2        oh         ho   
25        0.00000000      0.00000000      0.00000000      1.36490000 #  o_1       c_1        oh         ho   

BondBond13 Coeffs  # class2

1         0.00000000      1.52020000      1.10100000 #  c_1        c2        c2         hc   
2         0.00000000      1.10100000      1.10100000 #  hc         c2        c2         hc   
3         0.00000000      1.10100000      1.42000000 #  hc         c2        c2         oh   
4         0.00000000      1.52020000      1.42000000 #  c_1        c2        c2         oh   
5         0.00000000      1.53000000      1.20200000 #  c2         c2       c_1        o_1   
6         0.00000000      1.10100000      1.20200000 #  hc         c2       c_1        o_1   
7         0.00000000      1.36490000      1.10100000 #  oh        c_1        c2         hc   
8         0.00000000      1.36490000      1.53000000 #  oh        c_1        c2         c2   
9         0.00000000      1.53000000      0.96500000 #  c2         c2        oh         ho   
10        0.00000000      1.10100000      0.96500000 #  hc         c2        oh         ho   
11        0.00000000      1.50000000      0.96500000 #  cp        c=2        oh         ho   
12        0.00000000      1.52020000      0.96500000 #  c2        c_1        oh         ho   
13        0.00000000      1.35500000      1.41700000 #  o_1       c=2        cp         cp   
14        0.00000000      1.36800000      1.41700000 #  oh        c=2        cp         cp   
15       53.00000000      1.41700000      1.41700000 #  cp         cp        cp         cp   
16        0.00000000      1.50000000      1.41700000 #  c=2        cp        cp         cp   
17       -1.70770000      1.09820000      1.09820000 #  hc         cp        cp         hc   
18       -6.27410000      1.41700000      1.09820000 #  cp         cp        cp         hc   
19        0.00000000      1.50000000      1.09820000 #  c=2        cp        cp         hc   
20       -2.24360000      1.41700000      1.37680000 #  cp         cp        cp         oh   
21        0.00000000      1.50000000      1.37680000 #  c=2        cp        cp         oh   
22        2.05170000      1.09820000      1.37680000 #  hc         cp        cp         oh   
23        1.15900000      1.41700000      0.96500000 #  cp         cp        oh         ho   
24        0.00000000      1.35500000      0.96500000 #  o_1       c=2        oh         ho   
25        0.00000000      1.20200000      0.96500000 #  o_1       c_1        oh         ho   

AngleTorsion Coeffs  # class2

1        -0.74660000     -0.94480000     -0.63210000      0.01620000      1.42110000     -1.40920000    108.52950000    110.77000000 #  c_1        c2        c2         hc   
2        -0.80850000      0.55690000     -0.24660000     -0.80850000      0.55690000     -0.24660000    110.77000000    110.77000000 #  hc         c2        c2         hc   
3         2.36680000      2.49200000     -1.01220000     -0.18920000      0.49180000      0.72730000    110.77000000    111.27000000 #  hc         c2        c2         oh   
4         0.00000000      0.00000000      0.00000000      0.00000000      0.00000000      0.00000000    108.52950000    111.27000000 #  c_1        c2        c2         oh   
5         0.08850000     -1.37030000     -0.54520000      0.67500000      0.59650000      0.67250000    108.52950000    123.14510000 #  c2         c2       c_1        o_1   
6         9.12990000     -0.48470000      0.35820000     -1.49460000      0.73080000     -0.20830000    107.73360000    123.14510000 #  hc         c2       c_1        o_1   
7         0.00000000      0.00000000      0.00000000      0.00000000      0.00000000      0.00000000    110.00000000    107.73360000 #  oh        c_1        c2         hc   
8         0.00000000      0.00000000      0.00000000      0.00000000      0.00000000      0.00000000    110.00000000    108.52950000 #  oh        c_1        c2         c2   
9        -3.59030000      2.52250000      0.48880000      0.87260000     -0.35770000      0.38880000    111.27000000    105.80000000 #  c2         c2        oh         ho   
10       -3.40600000      1.63960000      0.07370000      0.00000000     -0.28100000     -0.59440000    108.72800000    105.80000000 #  hc         c2        oh         ho   
11        0.00000000      0.00000000      0.00000000      0.00000000      0.00000000      0.00000000    120.00000000    109.00000000 #  cp        c=2        oh         ho   
12        0.00000000      0.00000000      0.00000000      0.00000000      0.00000000      0.00000000    110.00000000    111.25370000 #  c2        c_1        oh         ho   
13        0.00000000      0.00000000      0.00000000      0.00000000      0.00000000      0.00000000    120.00000000    120.00000000 #  o_1       c=2        cp         cp   
14        0.00000000      0.00000000      0.00000000      0.00000000      0.00000000      0.00000000    120.00000000    120.00000000 #  oh        c=2        cp         cp   
15        1.97670000      1.02390000      0.00000000      1.97670000      1.02390000      0.00000000    118.90000000    118.90000000 #  cp         cp        cp         cp   
16        0.00000000      0.00000000      0.00000000      0.00000000      0.00000000      0.00000000    120.00000000    118.90000000 #  c=2        cp        cp         cp   
17        0.00000000      2.45010000      0.00000000      0.00000000      2.45010000      0.00000000    117.94000000    117.94000000 #  hc         cp        cp         hc   
18        0.00000000      2.50140000      0.00000000      0.00000000      2.71470000      0.00000000    118.90000000    117.94000000 #  cp         cp        cp         hc   
19        0.00000000      0.00000000      0.00000000      0.00000000      0.00000000      0.00000000    120.00000000    117.94000000 #  c=2        cp        cp         hc   
20        0.00000000     10.01550000      0.00000000      0.00000000      1.74040000      0.00000000    118.90000000    123.42000000 #  cp         cp        cp         oh   
21        0.00000000      0.00000000      0.00000000      0.00000000      0.00000000      0.00000000    120.00000000    123.42000000 #  c=2        cp        cp         oh   
22        0.00000000      1.87290000      0.00000000      0.00000000      2.57060000      0.00000000    117.94000000    123.42000000 #  hc         cp        cp         oh   
23       -5.13600000     -1.01220000      0.00000000      4.68520000      0.02300000     -0.59800000    123.42000000    108.19000000 #  cp         cp        oh         ho   
24        0.00000000      0.00000000      0.00000000      0.00000000      0.00000000      0.00000000    120.00000000    109.00000000 #  o_1       c=2        oh         ho   
25        0.00000000      0.00000000      0.00000000      0.00000000      0.00000000      0.00000000    118.98550000    111.25370000 #  o_1       c_1        oh         ho   

AngleAngle Coeffs  # class2

1         0.00000000      0.00000000      0.00000000    123.14510000    118.98550000    110.00000000 #  c2        c_1       o_1        oh      nb==3   
2         0.00000000      0.00000000      0.00000000    120.00000000    118.90000000    120.00000000 #  c=2        cp        cp        cp      nb==3   
3         0.00000000      0.00000000      0.00000000    120.00000000    120.00000000    120.00000000 #  cp        c=2       o_1        oh      nb==3   
4         0.00000000      0.00000000      0.00000000    118.90000000    117.94000000    117.94000000 #  cp         cp        cp        hc      nb==3   
5         0.00000000      0.00000000      0.00000000    118.90000000    123.42000000    123.42000000 #  cp         cp        cp        oh      nb==3   
6         2.04030000     -1.82020000      1.08270000    108.52950000    110.77000000    107.73360000 #  c2         c2       c_1        hc      nb!=3   
7         0.27380000     -0.48250000      0.27380000    110.77000000    110.77000000    107.66000000 #  c2         c2        hc        hc      nb!=3   
8         3.91770000      2.59260000      0.16890000    110.77000000    111.27000000    108.72800000 #  c2         c2        hc        oh      nb!=3   